% Model:              Kundt's Tube Simulation.mph
% Version:            COMSOL 6.4.0.343
% Date:               Mar 9 2026, 15:57
% Dimension:          2
% Nodes:              354
% Expressions:        1
% Description:        Acoustic pressure
% Length unit:        m
% R                       Z                        p (Pa) @ freq=400
0.007992884413767696      0.008368815579753474     -4.034708747250254i
0                         0.011999999999999993     -4.3019455559982855i
0                         0                        -3.4082243512114223i
0.012500000000000011      0                        -3.408231194262841i
0.008641823663975295      0.018611344610465586     -4.780587632433114i
0                         0.023999999999999997     -5.162468329884502i
0.01880445341705867       0.011244987340475108     -4.2466311941633395i
0.025                     0                        -3.4082167050464443i
0.008631951017625402      0.030119926107199043     -5.58639128565736i
0                         0.03599999999999998      -5.983145530061936i
0.018949376950995654      0.023750574139597115     -5.144966188724577i
0.02511858708977026       0.017704435651912293     -4.715571483614962i
0.037500000000000006      0                        -3.408230343342405i
0.03150194880339444       0.011532598177887467     -4.2677264645060555i
0.04209517770050057       0.008360482404226151     -4.034092222800706i
0.05                      0                        -3.4082136517616592i
0.008231642676323639      0.04216026918150376      -6.386895540721171i
0                         0.04799999999999998      -6.7576491358036i
0.015968862814457824      0.03619736871162782      -5.996275961729956i
0.024746311667917305      0.03252639137621244      -5.750060686832445i
0.030919707878653724      0.023738276901687016     -5.14410245806349i
0.0414739396991084        0.018269813843243284     -4.75612497005175i
0.05                      0.01200000000000001      -4.301949259886071i
0.00829535998688118       0.05422884679097662      -7.139472916575991i
0                         0.05999999999999997      -7.480001764197259i
0.016486603345855784      0.04838662428270148      -6.781766757217727i
0.024763470657516388      0.042667458495161244     -6.419563643249481i
0.033104064057674513      0.03589302973709252      -5.9760225290730355i
0.04119536680197333       0.0300336495782451       -5.5804919333315i
0.05                      0.02400000000000002      -5.162469998743644i
0.008361172798897159      0.0662797414004117       -7.835345465380144i
0                         0.07199999999999997      -8.144629996171771i
0.016673314603752865      0.06046355132993266      -7.506782250445826i
0.024977791920411423      0.05456907535135202      -7.159906869182599i
0.033297190138781484      0.048432261511981205     -6.784610195796259i
0.041660116564679515      0.042279125828808474     -6.394560038086889i
0.05                      0.03600000000000003      -5.983145688510491i
0.008401309247102117      0.07832247945768524      -8.469829729949922i
0                         0.08399999999999995      -8.746404716433789i
0.016770734068308348      0.07255002634174247      -8.173624612870677i
0.025129172136003974      0.06669298006378405      -7.858155772817727i
0.03351391474371064       0.060760829544469964     -7.523911744498181i
0.041754605472905056      0.054390874279348196     -7.149210158508141i
0.05                      0.04800000000000004      -6.757648736862412i
0.008424941558256493      0.0903669835735829       -9.038562953761994i
0                         0.09599999999999996      -9.28068182214799i
0.016827296417406247      0.08464437019281057      -8.776848470086831i
0.0252105210865092        0.07880877547357985      -8.494099401204538i
0.03362266487438738       0.07298319338605411      -8.196366183193403i
0.04183226219508739       0.0664870569793477       -7.846798312810049i
0.05                      0.06000000000000005      -7.4800016833149465i
0.008447261584315512      0.10244794630473325      -9.538424214569789i
0                         0.10799999999999996      -9.74333815783358i
0.016859584117685723      0.09673332366543215      -9.311049073724718i
0.025247265986197878      0.09089971390106075      -9.06212607658068i
0.03365963182733565       0.08505724528455416      -8.796252472666971i
0.04182858713931745       0.07851694926034271      -8.479548161527289i
0.05                      0.07199999999999993      -8.144630080698262i
0.008459714777324013      0.11451397458147643      -9.963201413622661i
0                         0.11999999999999997      -10.130803336817898i
0.016862867360404356      0.10874243387752985      -9.769526585014242i
0.02525034731046598       0.10291565556742635      -9.55629941341868i
0.03363600502336487       0.09709444773937526      -9.325905004817491i
0.041826270621452055      0.09054303981481125      -9.046365371128127i
0.05                      0.08399999999999994      -8.746404881106951i
0.008461777733460513      0.12655815036232132      -10.309686159382736i
0                         0.13199999999999998      -10.44008721493822i
0.016868067861715377      0.12078041007478497      -10.153323670778237i
0.025237103818354912      0.11487069741995742      -9.974591178838677i
0.033577125758276725      0.10886917546127252      -9.773967950091814i
0.04183240658020407       0.10258428636209119      -9.543646551967164i
0.05                      0.09599999999999995      -9.280682016598602i
0.008461669398710051      0.13858612105578233      -10.575719152438197i
0                         0.14399999999999996      -10.668803003433077i
0.016867879544445064      0.13281004889834944      -10.458085808283426i
0.025247455502223192      0.12692140137848604      -10.31890294786727i
0.033604040193691495      0.12095117999254867      -10.158207337087402i
0.04184772693101444       0.11460619003486755      -9.966152296809824i
0.05                      0.10799999999999996      -9.743338435767955i
0.008457302784627363      0.15058860396363904      -10.759454481279535i
0                         0.15599999999999994      -10.815185651263656i
0.016865116670824635      0.14483473113404852      -10.681666900324572i
0.025238025858940485      0.13892158142406694      -10.58197150671871i
0.033627209966979585      0.13304582297753623      -10.463255558858421i
0.041878002587901794      0.12666077792327723      -10.31229755839246i
0.05                      0.11999999999999997      -10.13080365326521i
0.008450905297849521      0.16255974001052792      -10.859968810737707i
0                         0.16799999999999995      -10.878105478964875i
0.01685642677001112       0.1568326208567853       -10.822255462337123i
0.025230713712948317      0.15094297460380446      -10.763622131085732i
0.03357451279464152       0.14491406937788667      -10.682868603434308i
0.04188153088730921       0.13870643701486343      -10.577969119030138i
0.05                      0.13200000000000003      -10.440087519182645i
0.008447945090877844      0.1745478402607183       -10.87704210776352i
0                         0.17999999999999997      -10.857076909813147i
0.01685329735530666       0.16884464130073107      -10.879373817467934i
0.02523027963616777       0.16299196520726908      -10.862040599522034i
0.033589047727352696      0.157041884129762        -10.823969064117302i
0.04182664937904725       0.15060789186671467      -10.759683154378534i
0.05                      0.144                    -10.668803307293524i
0.008450313175677383      0.18654057511639294      -10.810299574721334i
0                         0.1919999999999999       -10.752262240469738i
0.01685295359129604       0.1808452634957066       -10.852431300630117i
0.02522196769569078       0.17498450535549034      -10.876081536933782i
0.03360719814017718       0.16920833623947698      -10.879791704132797i
0.04182213038516938       0.16264411059185796      -10.860381834125441i
0.05                      0.15600000000000006      -10.815185971249733i
0.008459499734884147      0.19853230018967138      -10.660248969895441i
0                         0.2039999999999999       -10.564470343657648i
0.016858164152927967      0.1928333142636449       -10.74188942404261i
0.025220845190876914      0.1869704213026336       -10.80635563606014i
0.033551692166985954      0.1809685113880766       -10.851719260460277i
0.04182660684489545       0.17469952563721308      -10.876721071094606i
0.05                      0.16800000000000007      -10.878105763491325i
0.0084737434268497        0.21052524113027626      -10.428016914032055i
0                         0.21599999999999986      -10.295150444117521i
0.016872738732416723      0.20482610478513905      -10.54852267337683i
0.02523829987693454       0.1989939126766327       -10.652821371748068i
0.033575982675189846      0.19306009450296113      -10.738997272092385i
0.04180852679731665       0.18662832067336163      -10.809503281157587i
0.05                      0.18000000000000008      -10.857077186614406i
0.008488376862877706      0.2225223092608124       -10.115283327349802i
0                         0.2279999999999999       -9.94638094340065i
0.01689141510812565       0.21682316344535582      -10.273736705087638i
0.025260613949425182      0.21100006177569144      -10.417154463213988i
0.03361843988923806       0.20515054094569316      -10.542153776622728i
0.04182619711876054       0.19867352469223964      -10.657989578054996i
0.05                      0.1920000000000001       -10.752262505376216i
0.008497695609137833      0.23452463630274384      -9.724338337383683i
0                         0.23999999999999988      -9.520853352550283i
0.016906708747564912      0.2288235208547996       -9.919597239930383i
0.025283997455417234      0.22301150779313736      -10.100857131216685i
0.03364408000076184       0.21712429887821377      -10.265809743548076i
0.041853644098430315      0.21071736079958295      -10.423636985804793i
0.05                      0.2040000000000001       -10.564470614577278i
0.008500781164574343      0.24652973652990157      -9.258203582733458i
0                         0.2519999999999999       -9.021851532009284i
0.016916330687249185      0.24082911138109928      -9.488697741535537i
0.025298194554956147      0.23502772944897773      -9.706288934889876i
0.033681342652519056      0.22918927229652392      -9.907585934675867i
0.041887059797685894      0.22273613450340726      -10.108993681846231i
0.05                      0.2160000000000001       -10.295150706830835i
0.008495248656806755      0.25852393709763033      -8.721080219289432i
0                         0.26399999999999985      -8.453226374307837i
0.016919573549088247      0.25283046700219786      -8.984694207911323i
0.025292114993228684      0.24699035155778645      -9.23886970962632i
0.03368705430725766       0.24125277679851198      -9.472130797389525i
0.04188090579709942       0.2347388955368818       -9.716667445654904i
0.05                      0.22800000000000012      -9.946381199409633i
0.008488593945202273      0.2705177220167          -8.116741656286862i
0                         0.27599999999999986      -7.819366090057511i
0.016914200292680946      0.26481142893802484      -8.412369314562582i
0.0252887577869542        0.25896014584511823      -8.700252369891565i
0.033623027650047405      0.2529835508079097       -8.977809240880417i
0.04186206245267304       0.2466730634365515       -9.25219911024198i
0.05                      0.24000000000000007      -9.520853610756186i
0.00848945272229165       0.28250109824258063      -7.450433980398472i
0                         0.2879999999999998       -7.125162271688192i
0.01691222475718018       0.2767987564538424       -7.774975456488282i
0.025300721683716353      0.27098638837369327      -8.09182438840444i
0.03364507921529009       0.2650398890504388       -8.400811992200303i
0.041876968594496335      0.25871120767377637      -8.712148971025742i
0.05                      0.25200000000000017      -9.021851694070389i
0.0084801110440406        0.2944694499474149       -6.727730292856111i
0                         0.2999999999999998       -6.375972203261057i
0.016922390180046723      0.28881820320255225      -7.075762922270681i
0.025293595843119188      0.2829477558549736       -7.424457339234864i
0.0336377591916803        0.27699435390930743      -7.7640647655036945i
0.04184089614838732       0.2705764526294228       -8.113624951673321i
0.05                      0.26400000000000007      -8.453226614977913i
0.00849595865012795       0.30653449297817115      -5.94692963830089i
0                         0.3119999999999999       -5.577577807837106i
0.016914104780290654      0.30079941945623095      -6.324248054805936i
0.02530804743278324       0.2949853138217348       -6.6953775531236905i
0.03366969617952796       0.28906836452773843      -7.060608806076664i
0.04185580580900191       0.2826135816328006       -7.44389975099216i
0.05                      0.2760000000000001       -7.8193661333884465i
0.008487433027663457      0.31854545904666154      -5.123539117075196i
0                         0.3239999999999999       -4.7361399664060295i
0.01692035111881088       0.31283656288124234      -5.5202400667686655i
0.025311618751748196      0.30701582635744645      -5.9147759692873025i
0.0337054387038396        0.30116187804694344      -6.300724430332497i
0.04187709802305669       0.2946635618744588       -6.7155675605257175i
0.05                      0.2880000000000001       -7.125162374204243i
0.008484594299647465      0.33054963856213543      -4.26103434077223i
0                         0.3359999999999999       -3.8581525031347907i
0.016917702775828426      0.324843659257379        -4.675529409020353i
0.025300867141191067      0.3189967419558668       -5.091789511051762i
0.03370807317929863       0.3132776919475782       -5.489920391737711i
0.041900552687665425      0.30673677320502857      -5.933425781321987i
0.05                      0.3000000000000001       -6.375972406125963i
0.00848659225930411       0.34252272786276383      -3.367979304754378i
0                         0.3479999999999998       -2.9503908693598944i
0.01691402632895114       0.33682490800752696      -3.7966245300859938i
0.025294846376572228      0.3309651733163754       -4.230550070289406i
0.033630260912287165      0.3249724370155053       -4.666263117452702i
0.0418769450491789        0.3186794125523422       -5.1141208047656646i
0.05                      0.3120000000000001       -5.57757797252309i
0.008479130074713912      0.35446975957641974      -2.4510724806759967i
0                         0.35999999999999993      -2.0198604359037255i
0.016911205193748894      0.34879358514704345      -2.8894775312489362i
0.025314880579186412      0.34301512350242214      -3.3306501741337358i
0.03365269074091992       0.3370167678231249       -3.782293706828922i
0.04185870904481822       0.33060756872782643      -4.256787257578378i
0.05                      0.3240000000000001       -4.736139948210921i
0.00848431543986577       0.366472707632284        -1.5110043002638935i
0                         0.37199999999999983      -1.0737425800108917i
0.016910120893520487      0.3607738823537964       -1.9592372491405958i
0.025282643753479984      0.35489613246928314      -2.417961170746168i
0.03361386195121092       0.3488816505684437       -2.8827124794217593i
0.04186853428191889       0.342629855696319        -3.3598616274965107i
0.05                      0.33600000000000013      -3.8581524082973253i
0.008483229424936744      0.37849457571872114      -0.5577638535790771i
0                         0.38399999999999984      -0.11933845954540408i
0.01690809962680603       0.3727716413943188       -1.0125415625041212i
0.02530256750760545       0.36695276095904183      -1.4731148269539107i
0.03363919722966581       0.36094687180282664      -1.9456766628027518i
0.04186640373310163       0.354610695948914        -2.4401301232296437i
0.05                      0.3480000000000001       -2.950390826154562i
0.008459012027502107      0.3904232741850418       0.3923768048952336i
0                         0.39599999999999985      0.8359869359515736i
0.0169066007076657        0.38479372583638555      -0.05609586459363619i
0.025266766228713208      0.37886553944194107      -0.528243343932722i
0.033602897244143747      0.37286298719035305      -1.0052948844085128i
0.041878333271691146      0.36665560255060936      -1.4965710561326073i
0.05                      0.3600000000000001       -2.019860485864299i
0.00845468467365223       0.4024175593716736       1.344712250818411i
0                         0.40799999999999986      1.784860580106064i
0.016873641772933053      0.39669778143100703      0.8914102603141937i
0.02526427756770981       0.39087943667458935      0.42869791507809735i
0.03360777206022337       0.38490835262939754      -0.04696328497554054i
0.04186877062165962       0.3786842082711861       -0.5426736555055016i
0.05                      0.37200000000000005      -1.0737425422131786i
0.008454826814114795      0.4144178787670116       2.2871498980146936i
0                         0.4199999999999999       2.719960167897525i
0.016872680835845224      0.40870496347735324      1.840247151719656i
0.02525655249584333       0.4028703631610031       1.3805071646463398i
0.0336287382537015        0.39700060202824566      0.9154562582563638i
0.04188040167801923       0.3907356812156141       0.4172531598898162i
0.05                      0.3840000000000001       -0.11933839656249039i
0.008454764881398655      0.42641934551057276      3.2120236572918928i
0                         0.4319999999999999       3.634069334079843i
0.01687285036099051       0.42071054067633423      2.774741510672363i
0.025253249195276384      0.4148690534945889       2.322283457856102i
0.03363884916721485       0.4090426214163665       1.86675899214788i
0.04183495374727119       0.40257453171761587      1.3571224151984949i
0.05                      0.3960000000000001       0.8359866393968979i
0.008454433177312832      0.4384180875094603       4.1119025409379155i
0                         0.4439999999999999       4.520133680609694i
0.016875346770456875      0.4327223960950239       3.6882734456404083i
0.025240695292933903      0.4268329121039743       3.243492916327472i
0.03361770287182973       0.42098327469637487      2.79574934533117i
0.04182959472587658       0.4145604150314133       2.298252081448943i
0.05                      0.4080000000000001       1.7848606314445725i
0.008453305222619948      0.4504071495314153       4.9793698587470425i
0                         0.45599999999999996      5.371315329218315i
0.016885572592537777      0.4447556537620856       4.574833625835859i
0.025229880376708095      0.43879843933433643      4.139945236510008i
0.033569430739450255      0.4328243213301952       3.695912770049865i
0.04182414646454661       0.4265464684891182       3.2217000142322507i
0.05                      0.42000000000000004      2.719960183676078i
0.00845380202825322       0.4623969971564477       5.808533485812851i
0                         0.4679999999999999       6.18104553053966i
0.01688461799610646       0.45673871758772283      5.422425750248416i
0.025223480837002692      0.4507744838752545       5.005376173124148i
0.033547601549338064      0.444752234572209        4.574586207470982i
0.041812211742438925      0.4385120269563943       4.118831686366672i
0.05                      0.43200000000000005      3.6340693884506883i
0.008452864784133523      0.4743837171347931       6.5927490690195105i
0                         0.48                     6.943075422644729i
0.016870980645513782      0.4686853295473471       6.225908048118144i
0.02521074193237303       0.46272509629208397      5.830622711775334i
0.033528198793319856      0.45668443157254907      5.4186750794827665i
0.04179328911115435       0.4504511818064831       4.9824892523430515i
0.05                      0.44400000000000006      4.520133782660155i
0.008452636255726165      0.48637469864226424      7.326450739984028i
0                         0.492                    7.6515242921345505i
0.016864142653723296      0.48065348273212155      6.983086796709183i
0.02519609268935008       0.474666541998995        6.610662465018386i
0.033510403486378404      0.46861815591870853      6.22151773820972i
0.041775822363568166      0.46238844088686565      5.807957006631326i
0.05                      0.45599999999999996      5.371315488436562i
0.008453478017619307      0.4983435892962982       8.002505075455053i
0                         0.504                    8.300924938749569i
0.01685443886631544       0.49260052973506063      7.685470688271899i
0.02518527557053651       0.48661598274935497      7.340653124403791i
0.03349733315134674       0.4805638191116743       6.977606317025592i
0.04176461498353981       0.4743454520176922       6.590323314633239i
0.05                      0.46799999999999997      6.181045738403344i
0.008446647705314267      0.510315150468015        8.617252116502291i
0                         0.516                    8.88626577704658i
0.016845746116228123      0.5045462895894564       8.329000368305971i
0.02517744686353203       0.49856828631482664      8.014624848904782i
0.03348676804636667       0.49251145750454434      7.680445101975102i
0.041756608388687354      0.48630987552638666      7.322631204139985i
0.05                      0.48                     6.943075666961412i
0.008448577293576572      0.5222945133363565       9.166147831329125i
0                         0.528                    9.40302961977457i
0.016836853143782273      0.516488261060349        8.908659629136084i
0.02518136832472402       0.5105537094991134       8.628844692218685i
0.033477074760766785      0.5044558715559849       8.324362778870414i
0.041750219341860274      0.49827550214081046      7.998828313499382i
0.05                      0.492                    7.651524572382544i
0.00844581744619221       0.5342781686311644       9.644707872413322i
0                         0.5399999999999999       9.847228490236658i
0.01682946821546668       0.5284358662184003       9.420456658228238i
0.02517164642468754       0.5224866249721991       9.174386669626953i
0.03346705584443906       0.5163972261924071       8.90449308694505i
0.04174393665760101       0.5102395153306869       8.61357131146349i
0.05000000000000001       0.504                    8.30092522262248i
0.008437851599215338      0.5462887091733342       10.049861703488174i
0                         0.5519999999999999       10.215434377378662i
0.01680788964668395       0.540391092435078        9.860444058566754i
0.025157969200131174      0.5344291981931197       9.650272689617383i
0.03345415568658947       0.5283374174001906       9.416528934516803i
0.04173572708784503       0.5222006760789807       9.162117014951166i
0.05000000000000001       0.516                    8.886266071524629i
0.008401478343566263      0.5582653081162988       10.376509204592436i
0                         0.564                    10.504806012961717i
0.016748599099831504      0.5523375581557907       10.22466416409251i
0.025127257315229197      0.5463889724177965       10.052920796347196i
0.0334325767881526        0.5402691659891735       9.856332861608992i
0.04172257440219629       0.534155146313612        9.640166423182913i
0.05                      0.528                    9.403029929287172i
0.008568657558412691      0.5700420986363708       10.619937608879063i
0                         0.576                    10.713110225838669i
0.016690070273344352      0.5642757474385449       10.510510373843935i
0.02501788100395694       0.5583908751474295       10.37951565387734i
0.03340804277000385       0.5521640061100396       10.21992750083463i
0.04169756332747454       0.5460849185306589       10.043627188396664i
0.05                      0.54                     9.847228811913604i
0.008807161891347356      0.5818340032105019       10.784588863652267i
0                         0.588                    10.838739543009856i
0.007998770058909933      0.5918180008284571       10.861197515318453i
0                         0.6                      10.880723486505824i
0.017593066014368525      0.5758838178634222       10.711487135501711i
0.025093488959420235      0.5698409611032197       10.616439246416034i
0.03294224563632072       0.5634532638902144       10.493371196705288i
0.04161772496955329       0.5579106919203971       10.367972301195095i
0.05                      0.552                    10.215434794169589i
0.018682477716392986      0.5892601019347615       10.847090405167583i
0.012499999999999999      0.5999999999999999       10.880723156073103i
0.02735323653390238       0.5800778719669747       10.765136992239663i
0.03282136156257249       0.5723658620609267       10.658691292746736i
0.04165849808352064       0.5697619629914691       10.615058222424222i
0.05                      0.5640000000000001       10.504806324997265i
0.03164546185805631       0.5904499617445226       10.854125971058963i
0.024999999999999998      0.5999999999999999       10.88072359631i
0.03958997052651827       0.5813931701724421       10.779873791509564i
0.05                      0.576                    10.713110498283575i
0.04174708637152427       0.5919686263929572       10.861909820464865i
0.03749999999999999       0.6                      10.880722963839986i
0.05                      0.588                    10.838739631399468i
0.05                      0.6                      10.880723947004359i
